+ 0.1 1 2 cbr 210 ------- 2 1.0 3.1 0 0
- 0.1 1 2 cbr 210 ------- 2 1.0 3.1 0 0
+ 0.10375 1 2 cbr 210 ------- 2 1.0 3.1 1 1
- 0.10375 1 2 cbr 210 ------- 2 1.0 3.1 1 1
+ 0.1075 1 2 cbr 210 ------- 2 1.0 3.1 2 2
- 0.1075 1 2 cbr 210 ------- 2 1.0 3.1 2 2
r 0.11084 1 2 cbr 210 ------- 2 1.0 3.1 0 0
+ 0.11084 2 3 cbr 210 ------- 2 1.0 3.1 0 0
- 0.11084 2 3 cbr 210 ------- 2 1.0 3.1 0 0
+ 0.11125 1 2 cbr 210 ------- 2 1.0 3.1 3 3
- 0.11125 1 2 cbr 210 ------- 2 1.0 3.1 3 3
r 0.11459 1 2 cbr 210 ------- 2 1.0 3.1 1 1
+ 0.11459 2 3 cbr 210 ------- 2 1.0 3.1 1 1
- 0.11459 2 3 cbr 210 ------- 2 1.0 3.1 1 1
+ 0.115 1 2 cbr 210 ------- 2 1.0 3.1 4 4
- 0.115 1 2 cbr 210 ------- 2 1.0 3.1 4 4
r 0.11834 1 2 cbr 210 ------- 2 1.0 3.1 2 2
+ 0.11834 2 3 cbr 210 ------- 2 1.0 3.1 2 2
- 0.11834 2 3 cbr 210 ------- 2 1.0 3.1 2 2
+ 0.11875 1 2 cbr 210 ------- 2 1.0 3.1 5 5
- 0.11875 1 2 cbr 210 ------- 2 1.0 3.1 5 5
r 0.12209 1 2 cbr 210 ------- 2 1.0 3.1 3 3
+ 0.12209 2 3 cbr 210 ------- 2 1.0 3.1 3 3
- 0.12209 2 3 cbr 210 ------- 2 1.0 3.1 3 3
+ 0.1225 1 2 cbr 210 ------- 2 1.0 3.1 6 6
- 0.1225 1 2 cbr 210 ------- 2 1.0 3.1 6 6
r 0.12584 1 2 cbr 210 ------- 2 1.0 3.1 4 4
+ 0.12584 2 3 cbr 210 ------- 2 1.0 3.1 4 4
- 0.12584 2 3 cbr 210 ------- 2 1.0 3.1 4 4
+ 0.12625 1 2 cbr 210 ------- 2 1.0 3.1 7 7
- 0.12625 1 2 cbr 210 ------- 2 1.0 3.1 7 7
r 0.12959 1 2 cbr 210 ------- 2 1.0 3.1 5 5
+ 0.12959 2 3 cbr 210 ------- 2 1.0 3.1 5 5
- 0.12959 2 3 cbr 210 ------- 2 1.0 3.1 5 5
+ 0.13 1 2 cbr 210 ------- 2 1.0 3.1 8 8
- 0.13 1 2 cbr 210 ------- 2 1.0 3.1 8 8
r 0.131828 2 3 cbr 210 ------- 2 1.0 3.1 0 0
r 0.13334 1 2 cbr 210 ------- 2 1.0 3.1 6 6
+ 0.13334 2 3 cbr 210 ------- 2 1.0 3.1 6 6
- 0.13334 2 3 cbr 210 ------- 2 1.0 3.1 6 6
+ 0.13375 1 2 cbr 210 ------- 2 1.0 3.1 9 9
- 0.13375 1 2 cbr 210 ------- 2 1.0 3.1 9 9
r 0.135578 2 3 cbr 210 ------- 2 1.0 3.1 1 1
r 0.13709 1 2 cbr 210 ------- 2 1.0 3.1 7 7
+ 0.13709 2 3 cbr 210 ------- 2 1.0 3.1 7 7
- 0.13709 2 3 cbr 210 ------- 2 1.0 3.1 7 7
+ 0.1375 1 2 cbr 210 ------- 2 1.0 3.1 10 10
- 0.1375 1 2 cbr 210 ------- 2 1.0 3.1 10 10
r 0.139328 2 3 cbr 210 ------- 2 1.0 3.1 2 2
r 0.14084 1 2 cbr 210 ------- 2 1.0 3.1 8 8
+ 0.14084 2 3 cbr 210 ------- 2 1.0 3.1 8 8
- 0.14084 2 3 cbr 210 ------- 2 1.0 3.1 8 8
+ 0.14125 1 2 cbr 210 ------- 2 1.0 3.1 11 11
- 0.14125 1 2 cbr 210 ------- 2 1.0 3.1 11 11
r 0.143078 2 3 cbr 210 ------- 2 1.0 3.1 3 3
r 0.14459 1 2 cbr 210 ------- 2 1.0 3.1 9 9
+ 0.14459 2 3 cbr 210 ------- 2 1.0 3.1 9 9
- 0.14459 2 3 cbr 210 ------- 2 1.0 3.1 9 9
+ 0.145 1 2 cbr 210 ------- 2 1.0 3.1 12 12
- 0.145 1 2 cbr 210 ------- 2 1.0 3.1 12 12
r 0.146828 2 3 cbr 210 ------- 2 1.0 3.1 4 4
r 0.14834 1 2 cbr 210 ------- 2 1.0 3.1 10 10
+ 0.14834 2 3 cbr 210 ------- 2 1.0 3.1 10 10
- 0.14834 2 3 cbr 210 ------- 2 1.0 3.1 10 10
+ 0.14875 1 2 cbr 210 ------- 2 1.0 3.1 13 13
- 0.14875 1 2 cbr 210 ------- 2 1.0 3.1 13 13
r 0.150578 2 3 cbr 210 ------- 2 1.0 3.1 5 5
r 0.15209 1 2 cbr 210 ------- 2 1.0 3.1 11 11
+ 0.15209 2 3 cbr 210 ------- 2 1.0 3.1 11 11
- 0.15209 2 3 cbr 210 ------- 2 1.0 3.1 11 11
+ 0.1525 1 2 cbr 210 ------- 2 1.0 3.1 14 14
- 0.1525 1 2 cbr 210 ------- 2 1.0 3.1 14 14
r 0.154328 2 3 cbr 210 ------- 2 1.0 3.1 6 6
r 0.15584 1 2 cbr 210 ------- 2 1.0 3.1 12 12
+ 0.15584 2 3 cbr 210 ------- 2 1.0 3.1 12 12
- 0.15584 2 3 cbr 210 ------- 2 1.0 3.1 12 12
+ 0.15625 1 2 cbr 210 ------- 2 1.0 3.1 15 15
- 0.15625 1 2 cbr 210 ------- 2 1.0 3.1 15 15
r 0.158078 2 3 cbr 210 ------- 2 1.0 3.1 7 7
r 0.15959 1 2 cbr 210 ------- 2 1.0 3.1 13 13
+ 0.15959 2 3 cbr 210 ------- 2 1.0 3.1 13 13
- 0.15959 2 3 cbr 210 ------- 2 1.0 3.1 13 13
+ 0.16 1 2 cbr 210 ------- 2 1.0 3.1 16 16
- 0.16 1 2 cbr 210 ------- 2 1.0 3.1 16 16
r 0.161828 2 3 cbr 210 ------- 2 1.0 3.1 8 8
r 0.16334 1 2 cbr 210 ------- 2 1.0 3.1 14 14
+ 0.16334 2 3 cbr 210 ------- 2 1.0 3.1 14 14
- 0.16334 2 3 cbr 210 ------- 2 1.0 3.1 14 14
+ 0.16375 1 2 cbr 210 ------- 2 1.0 3.1 17 17
- 0.16375 1 2 cbr 210 ------- 2 1.0 3.1 17 17
r 0.165578 2 3 cbr 210 ------- 2 1.0 3.1 9 9
r 0.16709 1 2 cbr 210 ------- 2 1.0 3.1 15 15
+ 0.16709 2 3 cbr 210 ------- 2 1.0 3.1 15 15
- 0.16709 2 3 cbr 210 ------- 2 1.0 3.1 15 15
+ 0.1675 1 2 cbr 210 ------- 2 1.0 3.1 18 18
- 0.1675 1 2 cbr 210 ------- 2 1.0 3.1 18 18
r 0.169328 2 3 cbr 210 ------- 2 1.0 3.1 10 10
r 0.17084 1 2 cbr 210 ------- 2 1.0 3.1 16 16
+ 0.17084 2 3 cbr 210 ------- 2 1.0 3.1 16 16
- 0.17084 2 3 cbr 210 ------- 2 1.0 3.1 16 16
+ 0.17125 1 2 cbr 210 ------- 2 1.0 3.1 19 19
- 0.17125 1 2 cbr 210 ------- 2 1.0 3.1 19 19
r 0.173078 2 3 cbr 210 ------- 2 1.0 3.1 11 11
r 0.17459 1 2 cbr 210 ------- 2 1.0 3.1 17 17
+ 0.17459 2 3 cbr 210 ------- 2 1.0 3.1 17 17
- 0.17459 2 3 cbr 210 ------- 2 1.0 3.1 17 17
+ 0.175 1 2 cbr 210 ------- 2 1.0 3.1 20 20
- 0.175 1 2 cbr 210 ------- 2 1.0 3.1 20 20
r 0.176828 2 3 cbr 210 ------- 2 1.0 3.1 12 12
r 0.17834 1 2 cbr 210 ------- 2 1.0 3.1 18 18
+ 0.17834 2 3 cbr 210 ------- 2 1.0 3.1 18 18
- 0.17834 2 3 cbr 210 ------- 2 1.0 3.1 18 18
+ 0.17875 1 2 cbr 210 ------- 2 1.0 3.1 21 21
- 0.17875 1 2 cbr 210 ------- 2 1.0 3.1 21 21
r 0.180578 2 3 cbr 210 ------- 2 1.0 3.1 13 13
r 0.18209 1 2 cbr 210 ------- 2 1.0 3.1 19 19
+ 0.18209 2 3 cbr 210 ------- 2 1.0 3.1 19 19
- 0.18209 2 3 cbr 210 ------- 2 1.0 3.1 19 19
+ 0.1825 1 2 cbr 210 ------- 2 1.0 3.1 22 22
- 0.1825 1 2 cbr 210 ------- 2 1.0 3.1 22 22
r 0.184328 2 3 cbr 210 ------- 2 1.0 3.1 14 14
r 0.18584 1 2 cbr 210 ------- 2 1.0 3.1 20 20
+ 0.18584 2 3 cbr 210 ------- 2 1.0 3.1 20 20
- 0.18584 2 3 cbr 210 ------- 2 1.0 3.1 20 20
+ 0.18625 1 2 cbr 210 ------- 2 1.0 3.1 23 23
- 0.18625 1 2 cbr 210 ------- 2 1.0 3.1 23 23
r 0.188078 2 3 cbr 210 ------- 2 1.0 3.1 15 15
r 0.18959 1 2 cbr 210 ------- 2 1.0 3.1 21 21
+ 0.18959 2 3 cbr 210 ------- 2 1.0 3.1 21 21
- 0.18959 2 3 cbr 210 ------- 2 1.0 3.1 21 21
+ 0.19 1 2 cbr 210 ------- 2 1.0 3.1 24 24
- 0.19 1 2 cbr 210 ------- 2 1.0 3.1 24 24
r 0.191828 2 3 cbr 210 ------- 2 1.0 3.1 16 16
r 0.19334 1 2 cbr 210 ------- 2 1.0 3.1 22 22
+ 0.19334 2 3 cbr 210 ------- 2 1.0 3.1 22 22
- 0.19334 2 3 cbr 210 ------- 2 1.0 3.1 22 22
+ 0.19375 1 2 cbr 210 ------- 2 1.0 3.1 25 25
- 0.19375 1 2 cbr 210 ------- 2 1.0 3.1 25 25
r 0.195578 2 3 cbr 210 ------- 2 1.0 3.1 17 17
r 0.19709 1 2 cbr 210 ------- 2 1.0 3.1 23 23
+ 0.19709 2 3 cbr 210 ------- 2 1.0 3.1 23 23
- 0.19709 2 3 cbr 210 ------- 2 1.0 3.1 23 23
+ 0.1975 1 2 cbr 210 ------- 2 1.0 3.1 26 26
- 0.1975 1 2 cbr 210 ------- 2 1.0 3.1 26 26
r 0.199328 2 3 cbr 210 ------- 2 1.0 3.1 18 18
r 0.20084 1 2 cbr 210 ------- 2 1.0 3.1 24 24
+ 0.20084 2 3 cbr 210 ------- 2 1.0 3.1 24 24
- 0.20084 2 3 cbr 210 ------- 2 1.0 3.1 24 24
+ 0.20125 1 2 cbr 210 ------- 2 1.0 3.1 27 27
- 0.20125 1 2 cbr 210 ------- 2 1.0 3.1 27 27
r 0.203078 2 3 cbr 210 ------- 2 1.0 3.1 19 19
r 0.20459 1 2 cbr 210 ------- 2 1.0 3.1 25 25
+ 0.20459 2 3 cbr 210 ------- 2 1.0 3.1 25 25
- 0.20459 2 3 cbr 210 ------- 2 1.0 3.1 25 25
+ 0.205 1 2 cbr 210 ------- 2 1.0 3.1 28 28
- 0.205 1 2 cbr 210 ------- 2 1.0 3.1 28 28
r 0.206828 2 3 cbr 210 ------- 2 1.0 3.1 20 20
r 0.20834 1 2 cbr 210 ------- 2 1.0 3.1 26 26
+ 0.20834 2 3 cbr 210 ------- 2 1.0 3.1 26 26
- 0.20834 2 3 cbr 210 ------- 2 1.0 3.1 26 26
+ 0.20875 1 2 cbr 210 ------- 2 1.0 3.1 29 29
- 0.20875 1 2 cbr 210 ------- 2 1.0 3.1 29 29
r 0.210578 2 3 cbr 210 ------- 2 1.0 3.1 21 21
r 0.21209 1 2 cbr 210 ------- 2 1.0 3.1 27 27
+ 0.21209 2 3 cbr 210 ------- 2 1.0 3.1 27 27
- 0.21209 2 3 cbr 210 ------- 2 1.0 3.1 27 27
+ 0.2125 1 2 cbr 210 ------- 2 1.0 3.1 30 30
- 0.2125 1 2 cbr 210 ------- 2 1.0 3.1 30 30
r 0.214328 2 3 cbr 210 ------- 2 1.0 3.1 22 22
r 0.21584 1 2 cbr 210 ------- 2 1.0 3.1 28 28
+ 0.21584 2 3 cbr 210 ------- 2 1.0 3.1 28 28
- 0.21584 2 3 cbr 210 ------- 2 1.0 3.1 28 28
+ 0.21625 1 2 cbr 210 ------- 2 1.0 3.1 31 31
- 0.21625 1 2 cbr 210 ------- 2 1.0 3.1 31 31
r 0.218078 2 3 cbr 210 ------- 2 1.0 3.1 23 23
r 0.21959 1 2 cbr 210 ------- 2 1.0 3.1 29 29
+ 0.21959 2 3 cbr 210 ------- 2 1.0 3.1 29 29
- 0.21959 2 3 cbr 210 ------- 2 1.0 3.1 29 29
+ 0.22 1 2 cbr 210 ------- 2 1.0 3.1 32 32
- 0.22 1 2 cbr 210 ------- 2 1.0 3.1 32 32
r 0.221828 2 3 cbr 210 ------- 2 1.0 3.1 24 24
r 0.22334 1 2 cbr 210 ------- 2 1.0 3.1 30 30
+ 0.22334 2 3 cbr 210 ------- 2 1.0 3.1 30 30
- 0.22334 2 3 cbr 210 ------- 2 1.0 3.1 30 30
+ 0.22375 1 2 cbr 210 ------- 2 1.0 3.1 33 33
- 0.22375 1 2 cbr 210 ------- 2 1.0 3.1 33 33
r 0.225578 2 3 cbr 210 ------- 2 1.0 3.1 25 25
r 0.22709 1 2 cbr 210 ------- 2 1.0 3.1 31 31
+ 0.22709 2 3 cbr 210 ------- 2 1.0 3.1 31 31
- 0.22709 2 3 cbr 210 ------- 2 1.0 3.1 31 31
+ 0.2275 1 2 cbr 210 ------- 2 1.0 3.1 34 34
- 0.2275 1 2 cbr 210 ------- 2 1.0 3.1 34 34
r 0.229328 2 3 cbr 210 ------- 2 1.0 3.1 26 26
r 0.23084 1 2 cbr 210 ------- 2 1.0 3.1 32 32
+ 0.23084 2 3 cbr 210 ------- 2 1.0 3.1 32 32
- 0.23084 2 3 cbr 210 ------- 2 1.0 3.1 32 32
+ 0.23125 1 2 cbr 210 ------- 2 1.0 3.1 35 35
- 0.23125 1 2 cbr 210 ------- 2 1.0 3.1 35 35
r 0.233078 2 3 cbr 210 ------- 2 1.0 3.1 27 27
r 0.23459 1 2 cbr 210 ------- 2 1.0 3.1 33 33
+ 0.23459 2 3 cbr 210 ------- 2 1.0 3.1 33 33
- 0.23459 2 3 cbr 210 ------- 2 1.0 3.1 33 33
+ 0.235 1 2 cbr 210 ------- 2 1.0 3.1 36 36
- 0.235 1 2 cbr 210 ------- 2 1.0 3.1 36 36
r 0.236828 2 3 cbr 210 ------- 2 1.0 3.1 28 28
r 0.23834 1 2 cbr 210 ------- 2 1.0 3.1 34 34
+ 0.23834 2 3 cbr 210 ------- 2 1.0 3.1 34 34
- 0.23834 2 3 cbr 210 ------- 2 1.0 3.1 34 34
+ 0.23875 1 2 cbr 210 ------- 2 1.0 3.1 37 37
- 0.23875 1 2 cbr 210 ------- 2 1.0 3.1 37 37
r 0.240578 2 3 cbr 210 ------- 2 1.0 3.1 29 29
r 0.24209 1 2 cbr 210 ------- 2 1.0 3.1 35 35
+ 0.24209 2 3 cbr 210 ------- 2 1.0 3.1 35 35
- 0.24209 2 3 cbr 210 ------- 2 1.0 3.1 35 35
+ 0.2425 1 2 cbr 210 ------- 2 1.0 3.1 38 38
- 0.2425 1 2 cbr 210 ------- 2 1.0 3.1 38 38
r 0.244328 2 3 cbr 210 ------- 2 1.0 3.1 30 30
r 0.24584 1 2 cbr 210 ------- 2 1.0 3.1 36 36
+ 0.24584 2 3 cbr 210 ------- 2 1.0 3.1 36 36
- 0.24584 2 3 cbr 210 ------- 2 1.0 3.1 36 36
+ 0.24625 1 2 cbr 210 ------- 2 1.0 3.1 39 39
- 0.24625 1 2 cbr 210 ------- 2 1.0 3.1 39 39
r 0.248078 2 3 cbr 210 ------- 2 1.0 3.1 31 31
r 0.24959 1 2 cbr 210 ------- 2 1.0 3.1 37 37
+ 0.24959 2 3 cbr 210 ------- 2 1.0 3.1 37 37
- 0.24959 2 3 cbr 210 ------- 2 1.0 3.1 37 37
+ 0.25 1 2 cbr 210 ------- 2 1.0 3.1 40 40
- 0.25 1 2 cbr 210 ------- 2 1.0 3.1 40 40
r 0.251828 2 3 cbr 210 ------- 2 1.0 3.1 32 32
r 0.25334 1 2 cbr 210 ------- 2 1.0 3.1 38 38
+ 0.25334 2 3 cbr 210 ------- 2 1.0 3.1 38 38
- 0.25334 2 3 cbr 210 ------- 2 1.0 3.1 38 38
+ 0.25375 1 2 cbr 210 ------- 2 1.0 3.1 41 41
- 0.25375 1 2 cbr 210 ------- 2 1.0 3.1 41 41
r 0.255578 2 3 cbr 210 ------- 2 1.0 3.1 33 33
r 0.25709 1 2 cbr 210 ------- 2 1.0 3.1 39 39
+ 0.25709 2 3 cbr 210 ------- 2 1.0 3.1 39 39
- 0.25709 2 3 cbr 210 ------- 2 1.0 3.1 39 39
+ 0.2575 1 2 cbr 210 ------- 2 1.0 3.1 42 42
- 0.2575 1 2 cbr 210 ------- 2 1.0 3.1 42 42
r 0.259328 2 3 cbr 210 ------- 2 1.0 3.1 34 34
r 0.26084 1 2 cbr 210 ------- 2 1.0 3.1 40 40
+ 0.26084 2 3 cbr 210 ------- 2 1.0 3.1 40 40
- 0.26084 2 3 cbr 210 ------- 2 1.0 3.1 40 40
+ 0.26125 1 2 cbr 210 ------- 2 1.0 3.1 43 43
- 0.26125 1 2 cbr 210 ------- 2 1.0 3.1 43 43
r 0.263078 2 3 cbr 210 ------- 2 1.0 3.1 35 35
r 0.26459 1 2 cbr 210 ------- 2 1.0 3.1 41 41
+ 0.26459 2 3 cbr 210 ------- 2 1.0 3.1 41 41
- 0.26459 2 3 cbr 210 ------- 2 1.0 3.1 41 41
+ 0.265 1 2 cbr 210 ------- 2 1.0 3.1 44 44
- 0.265 1 2 cbr 210 ------- 2 1.0 3.1 44 44
r 0.266828 2 3 cbr 210 ------- 2 1.0 3.1 36 36
r 0.26834 1 2 cbr 210 ------- 2 1.0 3.1 42 42
+ 0.26834 2 3 cbr 210 ------- 2 1.0 3.1 42 42
- 0.26834 2 3 cbr 210 ------- 2 1.0 3.1 42 42
+ 0.26875 1 2 cbr 210 ------- 2 1.0 3.1 45 45
- 0.26875 1 2 cbr 210 ------- 2 1.0 3.1 45 45
r 0.270578 2 3 cbr 210 ------- 2 1.0 3.1 37 37
r 0.27209 1 2 cbr 210 ------- 2 1.0 3.1 43 43
+ 0.27209 2 3 cbr 210 ------- 2 1.0 3.1 43 43
- 0.27209 2 3 cbr 210 ------- 2 1.0 3.1 43 43
+ 0.2725 1 2 cbr 210 ------- 2 1.0 3.1 46 46
- 0.2725 1 2 cbr 210 ------- 2 1.0 3.1 46 46
r 0.274328 2 3 cbr 210 ------- 2 1.0 3.1 38 38
r 0.27584 1 2 cbr 210 ------- 2 1.0 3.1 44 44
+ 0.27584 2 3 cbr 210 ------- 2 1.0 3.1 44 44
- 0.27584 2 3 cbr 210 ------- 2 1.0 3.1 44 44
+ 0.27625 1 2 cbr 210 ------- 2 1.0 3.1 47 47
- 0.27625 1 2 cbr 210 ------- 2 1.0 3.1 47 47
r 0.278078 2 3 cbr 210 ------- 2 1.0 3.1 39 39
r 0.27959 1 2 cbr 210 ------- 2 1.0 3.1 45 45
+ 0.27959 2 3 cbr 210 ------- 2 1.0 3.1 45 45
- 0.27959 2 3 cbr 210 ------- 2 1.0 3.1 45 45
+ 0.28 1 2 cbr 210 ------- 2 1.0 3.1 48 48
- 0.28 1 2 cbr 210 ------- 2 1.0 3.1 48 48
r 0.281828 2 3 cbr 210 ------- 2 1.0 3.1 40 40
r 0.28334 1 2 cbr 210 ------- 2 1.0 3.1 46 46
+ 0.28334 2 3 cbr 210 ------- 2 1.0 3.1 46 46
- 0.28334 2 3 cbr 210 ------- 2 1.0 3.1 46 46
+ 0.28375 1 2 cbr 210 ------- 2 1.0 3.1 49 49
- 0.28375 1 2 cbr 210 ------- 2 1.0 3.1 49 49
r 0.285578 2 3 cbr 210 ------- 2 1.0 3.1 41 41
r 0.28709 1 2 cbr 210 ------- 2 1.0 3.1 47 47
+ 0.28709 2 3 cbr 210 ------- 2 1.0 3.1 47 47
- 0.28709 2 3 cbr 210 ------- 2 1.0 3.1 47 47
+ 0.2875 1 2 cbr 210 ------- 2 1.0 3.1 50 50
- 0.2875 1 2 cbr 210 ------- 2 1.0 3.1 50 50
r 0.289328 2 3 cbr 210 ------- 2 1.0 3.1 42 42
r 0.29084 1 2 cbr 210 ------- 2 1.0 3.1 48 48
+ 0.29084 2 3 cbr 210 ------- 2 1.0 3.1 48 48
- 0.29084 2 3 cbr 210 ------- 2 1.0 3.1 48 48
+ 0.29125 1 2 cbr 210 ------- 2 1.0 3.1 51 51
- 0.29125 1 2 cbr 210 ------- 2 1.0 3.1 51 51
r 0.293078 2 3 cbr 210 ------- 2 1.0 3.1 43 43
r 0.29459 1 2 cbr 210 ------- 2 1.0 3.1 49 49
+ 0.29459 2 3 cbr 210 ------- 2 1.0 3.1 49 49
- 0.29459 2 3 cbr 210 ------- 2 1.0 3.1 49 49
+ 0.295 1 2 cbr 210 ------- 2 1.0 3.1 52 52
- 0.295 1 2 cbr 210 ------- 2 1.0 3.1 52 52
r 0.296828 2 3 cbr 210 ------- 2 1.0 3.1 44 44
r 0.29834 1 2 cbr 210 ------- 2 1.0 3.1 50 50
+ 0.29834 2 3 cbr 210 ------- 2 1.0 3.1 50 50
- 0.29834 2 3 cbr 210 ------- 2 1.0 3.1 50 50
+ 0.29875 1 2 cbr 210 ------- 2 1.0 3.1 53 53
- 0.29875 1 2 cbr 210 ------- 2 1.0 3.1 53 53
r 0.300578 2 3 cbr 210 ------- 2 1.0 3.1 45 45
r 0.30209 1 2 cbr 210 ------- 2 1.0 3.1 51 51
+ 0.30209 2 3 cbr 210 ------- 2 1.0 3.1 51 51
- 0.30209 2 3 cbr 210 ------- 2 1.0 3.1 51 51
+ 0.3025 1 2 cbr 210 ------- 2 1.0 3.1 54 54
- 0.3025 1 2 cbr 210 ------- 2 1.0 3.1 54 54
r 0.304328 2 3 cbr 210 ------- 2 1.0 3.1 46 46
r 0.30584 1 2 cbr 210 ------- 2 1.0 3.1 52 52
+ 0.30584 2 3 cbr 210 ------- 2 1.0 3.1 52 52
- 0.30584 2 3 cbr 210 ------- 2 1.0 3.1 52 52
+ 0.30625 1 2 cbr 210 ------- 2 1.0 3.1 55 55
- 0.30625 1 2 cbr 210 ------- 2 1.0 3.1 55 55
r 0.308078 2 3 cbr 210 ------- 2 1.0 3.1 47 47
r 0.30959 1 2 cbr 210 ------- 2 1.0 3.1 53 53
+ 0.30959 2 3 cbr 210 ------- 2 1.0 3.1 53 53
- 0.30959 2 3 cbr 210 ------- 2 1.0 3.1 53 53
+ 0.31 1 2 cbr 210 ------- 2 1.0 3.1 56 56
- 0.31 1 2 cbr 210 ------- 2 1.0 3.1 56 56
r 0.311828 2 3 cbr 210 ------- 2 1.0 3.1 48 48
r 0.31334 1 2 cbr 210 ------- 2 1.0 3.1 54 54
+ 0.31334 2 3 cbr 210 ------- 2 1.0 3.1 54 54
- 0.31334 2 3 cbr 210 ------- 2 1.0 3.1 54 54
+ 0.31375 1 2 cbr 210 ------- 2 1.0 3.1 57 57
- 0.31375 1 2 cbr 210 ------- 2 1.0 3.1 57 57
r 0.315578 2 3 cbr 210 ------- 2 1.0 3.1 49 49
r 0.31709 1 2 cbr 210 ------- 2 1.0 3.1 55 55
+ 0.31709 2 3 cbr 210 ------- 2 1.0 3.1 55 55
- 0.31709 2 3 cbr 210 ------- 2 1.0 3.1 55 55
+ 0.3175 1 2 cbr 210 ------- 2 1.0 3.1 58 58
- 0.3175 1 2 cbr 210 ------- 2 1.0 3.1 58 58
r 0.319328 2 3 cbr 210 ------- 2 1.0 3.1 50 50
r 0.32084 1 2 cbr 210 ------- 2 1.0 3.1 56 56
+ 0.32084 2 3 cbr 210 ------- 2 1.0 3.1 56 56
- 0.32084 2 3 cbr 210 ------- 2 1.0 3.1 56 56
+ 0.32125 1 2 cbr 210 ------- 2 1.0 3.1 59 59
- 0.32125 1 2 cbr 210 ------- 2 1.0 3.1 59 59
r 0.323078 2 3 cbr 210 ------- 2 1.0 3.1 51 51
r 0.32459 1 2 cbr 210 ------- 2 1.0 3.1 57 57
+ 0.32459 2 3 cbr 210 ------- 2 1.0 3.1 57 57
- 0.32459 2 3 cbr 210 ------- 2 1.0 3.1 57 57
+ 0.325 1 2 cbr 210 ------- 2 1.0 3.1 60 60
- 0.325 1 2 cbr 210 ------- 2 1.0 3.1 60 60
r 0.326828 2 3 cbr 210 ------- 2 1.0 3.1 52 52
r 0.32834 1 2 cbr 210 ------- 2 1.0 3.1 58 58
+ 0.32834 2 3 cbr 210 ------- 2 1.0 3.1 58 58
- 0.32834 2 3 cbr 210 ------- 2 1.0 3.1 58 58
+ 0.32875 1 2 cbr 210 ------- 2 1.0 3.1 61 61
- 0.32875 1 2 cbr 210 ------- 2 1.0 3.1 61 61
r 0.330578 2 3 cbr 210 ------- 2 1.0 3.1 53 53
r 0.33209 1 2 cbr 210 ------- 2 1.0 3.1 59 59
+ 0.33209 2 3 cbr 210 ------- 2 1.0 3.1 59 59
- 0.33209 2 3 cbr 210 ------- 2 1.0 3.1 59 59
+ 0.3325 1 2 cbr 210 ------- 2 1.0 3.1 62 62
- 0.3325 1 2 cbr 210 ------- 2 1.0 3.1 62 62
r 0.334328 2 3 cbr 210 ------- 2 1.0 3.1 54 54
r 0.33584 1 2 cbr 210 ------- 2 1.0 3.1 60 60
+ 0.33584 2 3 cbr 210 ------- 2 1.0 3.1 60 60
- 0.33584 2 3 cbr 210 ------- 2 1.0 3.1 60 60
+ 0.33625 1 2 cbr 210 ------- 2 1.0 3.1 63 63
- 0.33625 1 2 cbr 210 ------- 2 1.0 3.1 63 63
r 0.338078 2 3 cbr 210 ------- 2 1.0 3.1 55 55
r 0.33959 1 2 cbr 210 ------- 2 1.0 3.1 61 61
+ 0.33959 2 3 cbr 210 ------- 2 1.0 3.1 61 61
- 0.33959 2 3 cbr 210 ------- 2 1.0 3.1 61 61
+ 0.34 1 2 cbr 210 ------- 2 1.0 3.1 64 64
- 0.34 1 2 cbr 210 ------- 2 1.0 3.1 64 64
r 0.341828 2 3 cbr 210 ------- 2 1.0 3.1 56 56
r 0.34334 1 2 cbr 210 ------- 2 1.0 3.1 62 62
+ 0.34334 2 3 cbr 210 ------- 2 1.0 3.1 62 62
- 0.34334 2 3 cbr 210 ------- 2 1.0 3.1 62 62
+ 0.34375 1 2 cbr 210 ------- 2 1.0 3.1 65 65
- 0.34375 1 2 cbr 210 ------- 2 1.0 3.1 65 65
r 0.345578 2 3 cbr 210 ------- 2 1.0 3.1 57 57
r 0.34709 1 2 cbr 210 ------- 2 1.0 3.1 63 63
+ 0.34709 2 3 cbr 210 ------- 2 1.0 3.1 63 63
- 0.34709 2 3 cbr 210 ------- 2 1.0 3.1 63 63
+ 0.3475 1 2 cbr 210 ------- 2 1.0 3.1 66 66
- 0.3475 1 2 cbr 210 ------- 2 1.0 3.1 66 66
r 0.349328 2 3 cbr 210 ------- 2 1.0 3.1 58 58
r 0.35084 1 2 cbr 210 ------- 2 1.0 3.1 64 64
+ 0.35084 2 3 cbr 210 ------- 2 1.0 3.1 64 64
- 0.35084 2 3 cbr 210 ------- 2 1.0 3.1 64 64
+ 0.35125 1 2 cbr 210 ------- 2 1.0 3.1 67 67
- 0.35125 1 2 cbr 210 ------- 2 1.0 3.1 67 67
r 0.353078 2 3 cbr 210 ------- 2 1.0 3.1 59 59
r 0.35459 1 2 cbr 210 ------- 2 1.0 3.1 65 65
+ 0.35459 2 3 cbr 210 ------- 2 1.0 3.1 65 65
- 0.35459 2 3 cbr 210 ------- 2 1.0 3.1 65 65
+ 0.355 1 2 cbr 210 ------- 2 1.0 3.1 68 68
- 0.355 1 2 cbr 210 ------- 2 1.0 3.1 68 68
r 0.356828 2 3 cbr 210 ------- 2 1.0 3.1 60 60
r 0.35834 1 2 cbr 210 ------- 2 1.0 3.1 66 66
+ 0.35834 2 3 cbr 210 ------- 2 1.0 3.1 66 66
- 0.35834 2 3 cbr 210 ------- 2 1.0 3.1 66 66
+ 0.35875 1 2 cbr 210 ------- 2 1.0 3.1 69 69
- 0.35875 1 2 cbr 210 ------- 2 1.0 3.1 69 69
r 0.360578 2 3 cbr 210 ------- 2 1.0 3.1 61 61
r 0.36209 1 2 cbr 210 ------- 2 1.0 3.1 67 67
+ 0.36209 2 3 cbr 210 ------- 2 1.0 3.1 67 67
- 0.36209 2 3 cbr 210 ------- 2 1.0 3.1 67 67
+ 0.3625 1 2 cbr 210 ------- 2 1.0 3.1 70 70
- 0.3625 1 2 cbr 210 ------- 2 1.0 3.1 70 70
r 0.364328 2 3 cbr 210 ------- 2 1.0 3.1 62 62
r 0.36584 1 2 cbr 210 ------- 2 1.0 3.1 68 68
+ 0.36584 2 3 cbr 210 ------- 2 1.0 3.1 68 68
- 0.36584 2 3 cbr 210 ------- 2 1.0 3.1 68 68
+ 0.36625 1 2 cbr 210 ------- 2 1.0 3.1 71 71
- 0.36625 1 2 cbr 210 ------- 2 1.0 3.1 71 71
r 0.368078 2 3 cbr 210 ------- 2 1.0 3.1 63 63
r 0.36959 1 2 cbr 210 ------- 2 1.0 3.1 69 69
+ 0.36959 2 3 cbr 210 ------- 2 1.0 3.1 69 69
- 0.36959 2 3 cbr 210 ------- 2 1.0 3.1 69 69
+ 0.37 1 2 cbr 210 ------- 2 1.0 3.1 72 72
- 0.37 1 2 cbr 210 ------- 2 1.0 3.1 72 72
r 0.371828 2 3 cbr 210 ------- 2 1.0 3.1 64 64
r 0.37334 1 2 cbr 210 ------- 2 1.0 3.1 70 70
+ 0.37334 2 3 cbr 210 ------- 2 1.0 3.1 70 70
- 0.37334 2 3 cbr 210 ------- 2 1.0 3.1 70 70
+ 0.37375 1 2 cbr 210 ------- 2 1.0 3.1 73 73
- 0.37375 1 2 cbr 210 ------- 2 1.0 3.1 73 73
r 0.375578 2 3 cbr 210 ------- 2 1.0 3.1 65 65
r 0.37709 1 2 cbr 210 ------- 2 1.0 3.1 71 71
+ 0.37709 2 3 cbr 210 ------- 2 1.0 3.1 71 71
- 0.37709 2 3 cbr 210 ------- 2 1.0 3.1 71 71
+ 0.3775 1 2 cbr 210 ------- 2 1.0 3.1 74 74
- 0.3775 1 2 cbr 210 ------- 2 1.0 3.1 74 74
r 0.379328 2 3 cbr 210 ------- 2 1.0 3.1 66 66
r 0.38084 1 2 cbr 210 ------- 2 1.0 3.1 72 72
+ 0.38084 2 3 cbr 210 ------- 2 1.0 3.1 72 72
- 0.38084 2 3 cbr 210 ------- 2 1.0 3.1 72 72
+ 0.38125 1 2 cbr 210 ------- 2 1.0 3.1 75 75
- 0.38125 1 2 cbr 210 ------- 2 1.0 3.1 75 75
r 0.383078 2 3 cbr 210 ------- 2 1.0 3.1 67 67
r 0.38459 1 2 cbr 210 ------- 2 1.0 3.1 73 73
+ 0.38459 2 3 cbr 210 ------- 2 1.0 3.1 73 73
- 0.38459 2 3 cbr 210 ------- 2 1.0 3.1 73 73
+ 0.385 1 2 cbr 210 ------- 2 1.0 3.1 76 76
- 0.385 1 2 cbr 210 ------- 2 1.0 3.1 76 76
r 0.386828 2 3 cbr 210 ------- 2 1.0 3.1 68 68
r 0.38834 1 2 cbr 210 ------- 2 1.0 3.1 74 74
+ 0.38834 2 3 cbr 210 ------- 2 1.0 3.1 74 74
- 0.38834 2 3 cbr 210 ------- 2 1.0 3.1 74 74
+ 0.38875 1 2 cbr 210 ------- 2 1.0 3.1 77 77
- 0.38875 1 2 cbr 210 ------- 2 1.0 3.1 77 77
r 0.390578 2 3 cbr 210 ------- 2 1.0 3.1 69 69
r 0.39209 1 2 cbr 210 ------- 2 1.0 3.1 75 75
+ 0.39209 2 3 cbr 210 ------- 2 1.0 3.1 75 75
- 0.39209 2 3 cbr 210 ------- 2 1.0 3.1 75 75
+ 0.3925 1 2 cbr 210 ------- 2 1.0 3.1 78 78
- 0.3925 1 2 cbr 210 ------- 2 1.0 3.1 78 78
r 0.394328 2 3 cbr 210 ------- 2 1.0 3.1 70 70
r 0.39584 1 2 cbr 210 ------- 2 1.0 3.1 76 76
+ 0.39584 2 3 cbr 210 ------- 2 1.0 3.1 76 76
- 0.39584 2 3 cbr 210 ------- 2 1.0 3.1 76 76
+ 0.39625 1 2 cbr 210 ------- 2 1.0 3.1 79 79
- 0.39625 1 2 cbr 210 ------- 2 1.0 3.1 79 79
r 0.398078 2 3 cbr 210 ------- 2 1.0 3.1 71 71
r 0.39959 1 2 cbr 210 ------- 2 1.0 3.1 77 77
+ 0.39959 2 3 cbr 210 ------- 2 1.0 3.1 77 77
- 0.39959 2 3 cbr 210 ------- 2 1.0 3.1 77 77
+ 0.4 1 2 cbr 210 ------- 2 1.0 3.1 80 80
- 0.4 1 2 cbr 210 ------- 2 1.0 3.1 80 80
r 0.401828 2 3 cbr 210 ------- 2 1.0 3.1 72 72
r 0.40334 1 2 cbr 210 ------- 2 1.0 3.1 78 78
+ 0.40334 2 3 cbr 210 ------- 2 1.0 3.1 78 78
- 0.40334 2 3 cbr 210 ------- 2 1.0 3.1 78 78
+ 0.40375 1 2 cbr 210 ------- 2 1.0 3.1 81 81
- 0.40375 1 2 cbr 210 ------- 2 1.0 3.1 81 81
r 0.405578 2 3 cbr 210 ------- 2 1.0 3.1 73 73
r 0.40709 1 2 cbr 210 ------- 2 1.0 3.1 79 79
+ 0.40709 2 3 cbr 210 ------- 2 1.0 3.1 79 79
- 0.40709 2 3 cbr 210 ------- 2 1.0 3.1 79 79
+ 0.4075 1 2 cbr 210 ------- 2 1.0 3.1 82 82
- 0.4075 1 2 cbr 210 ------- 2 1.0 3.1 82 82
r 0.409328 2 3 cbr 210 ------- 2 1.0 3.1 74 74
r 0.41084 1 2 cbr 210 ------- 2 1.0 3.1 80 80
+ 0.41084 2 3 cbr 210 ------- 2 1.0 3.1 80 80
- 0.41084 2 3 cbr 210 ------- 2 1.0 3.1 80 80
+ 0.41125 1 2 cbr 210 ------- 2 1.0 3.1 83 83
- 0.41125 1 2 cbr 210 ------- 2 1.0 3.1 83 83
r 0.413078 2 3 cbr 210 ------- 2 1.0 3.1 75 75
r 0.41459 1 2 cbr 210 ------- 2 1.0 3.1 81 81
+ 0.41459 2 3 cbr 210 ------- 2 1.0 3.1 81 81
- 0.41459 2 3 cbr 210 ------- 2 1.0 3.1 81 81
+ 0.415 1 2 cbr 210 ------- 2 1.0 3.1 84 84
- 0.415 1 2 cbr 210 ------- 2 1.0 3.1 84 84
r 0.416828 2 3 cbr 210 ------- 2 1.0 3.1 76 76
r 0.41834 1 2 cbr 210 ------- 2 1.0 3.1 82 82
+ 0.41834 2 3 cbr 210 ------- 2 1.0 3.1 82 82
- 0.41834 2 3 cbr 210 ------- 2 1.0 3.1 82 82
+ 0.41875 1 2 cbr 210 ------- 2 1.0 3.1 85 85
- 0.41875 1 2 cbr 210 ------- 2 1.0 3.1 85 85
r 0.420578 2 3 cbr 210 ------- 2 1.0 3.1 77 77
r 0.42209 1 2 cbr 210 ------- 2 1.0 3.1 83 83
+ 0.42209 2 3 cbr 210 ------- 2 1.0 3.1 83 83
- 0.42209 2 3 cbr 210 ------- 2 1.0 3.1 83 83
+ 0.4225 1 2 cbr 210 ------- 2 1.0 3.1 86 86
- 0.4225 1 2 cbr 210 ------- 2 1.0 3.1 86 86
r 0.424328 2 3 cbr 210 ------- 2 1.0 3.1 78 78
r 0.42584 1 2 cbr 210 ------- 2 1.0 3.1 84 84
+ 0.42584 2 3 cbr 210 ------- 2 1.0 3.1 84 84
- 0.42584 2 3 cbr 210 ------- 2 1.0 3.1 84 84
+ 0.42625 1 2 cbr 210 ------- 2 1.0 3.1 87 87
- 0.42625 1 2 cbr 210 ------- 2 1.0 3.1 87 87
r 0.428078 2 3 cbr 210 ------- 2 1.0 3.1 79 79
r 0.42959 1 2 cbr 210 ------- 2 1.0 3.1 85 85
+ 0.42959 2 3 cbr 210 ------- 2 1.0 3.1 85 85
- 0.42959 2 3 cbr 210 ------- 2 1.0 3.1 85 85
+ 0.43 1 2 cbr 210 ------- 2 1.0 3.1 88 88
- 0.43 1 2 cbr 210 ------- 2 1.0 3.1 88 88
r 0.431828 2 3 cbr 210 ------- 2 1.0 3.1 80 80
r 0.43334 1 2 cbr 210 ------- 2 1.0 3.1 86 86
+ 0.43334 2 3 cbr 210 ------- 2 1.0 3.1 86 86
- 0.43334 2 3 cbr 210 ------- 2 1.0 3.1 86 86
+ 0.43375 1 2 cbr 210 ------- 2 1.0 3.1 89 89
- 0.43375 1 2 cbr 210 ------- 2 1.0 3.1 89 89
r 0.435578 2 3 cbr 210 ------- 2 1.0 3.1 81 81
r 0.43709 1 2 cbr 210 ------- 2 1.0 3.1 87 87
+ 0.43709 2 3 cbr 210 ------- 2 1.0 3.1 87 87
- 0.43709 2 3 cbr 210 ------- 2 1.0 3.1 87 87
+ 0.4375 1 2 cbr 210 ------- 2 1.0 3.1 90 90
- 0.4375 1 2 cbr 210 ------- 2 1.0 3.1 90 90
r 0.439328 2 3 cbr 210 ------- 2 1.0 3.1 82 82
r 0.44084 1 2 cbr 210 ------- 2 1.0 3.1 88 88
+ 0.44084 2 3 cbr 210 ------- 2 1.0 3.1 88 88
- 0.44084 2 3 cbr 210 ------- 2 1.0 3.1 88 88
+ 0.44125 1 2 cbr 210 ------- 2 1.0 3.1 91 91
- 0.44125 1 2 cbr 210 ------- 2 1.0 3.1 91 91
r 0.443078 2 3 cbr 210 ------- 2 1.0 3.1 83 83
r 0.44459 1 2 cbr 210 ------- 2 1.0 3.1 89 89
+ 0.44459 2 3 cbr 210 ------- 2 1.0 3.1 89 89
- 0.44459 2 3 cbr 210 ------- 2 1.0 3.1 89 89
+ 0.445 1 2 cbr 210 ------- 2 1.0 3.1 92 92
- 0.445 1 2 cbr 210 ------- 2 1.0 3.1 92 92
r 0.446828 2 3 cbr 210 ------- 2 1.0 3.1 84 84
r 0.44834 1 2 cbr 210 ------- 2 1.0 3.1 90 90
+ 0.44834 2 3 cbr 210 ------- 2 1.0 3.1 90 90
- 0.44834 2 3 cbr 210 ------- 2 1.0 3.1 90 90
+ 0.44875 1 2 cbr 210 ------- 2 1.0 3.1 93 93
- 0.44875 1 2 cbr 210 ------- 2 1.0 3.1 93 93
r 0.450578 2 3 cbr 210 ------- 2 1.0 3.1 85 85
r 0.45209 1 2 cbr 210 ------- 2 1.0 3.1 91 91
+ 0.45209 2 3 cbr 210 ------- 2 1.0 3.1 91 91
- 0.45209 2 3 cbr 210 ------- 2 1.0 3.1 91 91
+ 0.4525 1 2 cbr 210 ------- 2 1.0 3.1 94 94
- 0.4525 1 2 cbr 210 ------- 2 1.0 3.1 94 94
r 0.454328 2 3 cbr 210 ------- 2 1.0 3.1 86 86
r 0.45584 1 2 cbr 210 ------- 2 1.0 3.1 92 92
+ 0.45584 2 3 cbr 210 ------- 2 1.0 3.1 92 92
- 0.45584 2 3 cbr 210 ------- 2 1.0 3.1 92 92
+ 0.45625 1 2 cbr 210 ------- 2 1.0 3.1 95 95
- 0.45625 1 2 cbr 210 ------- 2 1.0 3.1 95 95
r 0.458078 2 3 cbr 210 ------- 2 1.0 3.1 87 87
r 0.45959 1 2 cbr 210 ------- 2 1.0 3.1 93 93
+ 0.45959 2 3 cbr 210 ------- 2 1.0 3.1 93 93
- 0.45959 2 3 cbr 210 ------- 2 1.0 3.1 93 93
+ 0.46 1 2 cbr 210 ------- 2 1.0 3.1 96 96
- 0.46 1 2 cbr 210 ------- 2 1.0 3.1 96 96
r 0.461828 2 3 cbr 210 ------- 2 1.0 3.1 88 88
r 0.46334 1 2 cbr 210 ------- 2 1.0 3.1 94 94
+ 0.46334 2 3 cbr 210 ------- 2 1.0 3.1 94 94
- 0.46334 2 3 cbr 210 ------- 2 1.0 3.1 94 94
+ 0.46375 1 2 cbr 210 ------- 2 1.0 3.1 97 97
- 0.46375 1 2 cbr 210 ------- 2 1.0 3.1 97 97
r 0.465578 2 3 cbr 210 ------- 2 1.0 3.1 89 89
r 0.46709 1 2 cbr 210 ------- 2 1.0 3.1 95 95
+ 0.46709 2 3 cbr 210 ------- 2 1.0 3.1 95 95
- 0.46709 2 3 cbr 210 ------- 2 1.0 3.1 95 95
+ 0.4675 1 2 cbr 210 ------- 2 1.0 3.1 98 98
- 0.4675 1 2 cbr 210 ------- 2 1.0 3.1 98 98
r 0.469328 2 3 cbr 210 ------- 2 1.0 3.1 90 90
r 0.47084 1 2 cbr 210 ------- 2 1.0 3.1 96 96
+ 0.47084 2 3 cbr 210 ------- 2 1.0 3.1 96 96
- 0.47084 2 3 cbr 210 ------- 2 1.0 3.1 96 96
+ 0.47125 1 2 cbr 210 ------- 2 1.0 3.1 99 99
- 0.47125 1 2 cbr 210 ------- 2 1.0 3.1 99 99
r 0.473078 2 3 cbr 210 ------- 2 1.0 3.1 91 91
r 0.47459 1 2 cbr 210 ------- 2 1.0 3.1 97 97
+ 0.47459 2 3 cbr 210 ------- 2 1.0 3.1 97 97
- 0.47459 2 3 cbr 210 ------- 2 1.0 3.1 97 97
+ 0.475 1 2 cbr 210 ------- 2 1.0 3.1 100 100
- 0.475 1 2 cbr 210 ------- 2 1.0 3.1 100 100
r 0.476828 2 3 cbr 210 ------- 2 1.0 3.1 92 92
r 0.47834 1 2 cbr 210 ------- 2 1.0 3.1 98 98
+ 0.47834 2 3 cbr 210 ------- 2 1.0 3.1 98 98
- 0.47834 2 3 cbr 210 ------- 2 1.0 3.1 98 98
+ 0.47875 1 2 cbr 210 ------- 2 1.0 3.1 101 101
- 0.47875 1 2 cbr 210 ------- 2 1.0 3.1 101 101
r 0.480578 2 3 cbr 210 ------- 2 1.0 3.1 93 93
r 0.48209 1 2 cbr 210 ------- 2 1.0 3.1 99 99
+ 0.48209 2 3 cbr 210 ------- 2 1.0 3.1 99 99
- 0.48209 2 3 cbr 210 ------- 2 1.0 3.1 99 99
+ 0.4825 1 2 cbr 210 ------- 2 1.0 3.1 102 102
- 0.4825 1 2 cbr 210 ------- 2 1.0 3.1 102 102
r 0.484328 2 3 cbr 210 ------- 2 1.0 3.1 94 94
r 0.48584 1 2 cbr 210 ------- 2 1.0 3.1 100 100
+ 0.48584 2 3 cbr 210 ------- 2 1.0 3.1 100 100
- 0.48584 2 3 cbr 210 ------- 2 1.0 3.1 100 100
+ 0.48625 1 2 cbr 210 ------- 2 1.0 3.1 103 103
- 0.48625 1 2 cbr 210 ------- 2 1.0 3.1 103 103
r 0.488078 2 3 cbr 210 ------- 2 1.0 3.1 95 95
r 0.48959 1 2 cbr 210 ------- 2 1.0 3.1 101 101
+ 0.48959 2 3 cbr 210 ------- 2 1.0 3.1 101 101
- 0.48959 2 3 cbr 210 ------- 2 1.0 3.1 101 101
+ 0.49 1 2 cbr 210 ------- 2 1.0 3.1 104 104
- 0.49 1 2 cbr 210 ------- 2 1.0 3.1 104 104
r 0.491828 2 3 cbr 210 ------- 2 1.0 3.1 96 96
r 0.49334 1 2 cbr 210 ------- 2 1.0 3.1 102 102
+ 0.49334 2 3 cbr 210 ------- 2 1.0 3.1 102 102
- 0.49334 2 3 cbr 210 ------- 2 1.0 3.1 102 102
+ 0.49375 1 2 cbr 210 ------- 2 1.0 3.1 105 105
- 0.49375 1 2 cbr 210 ------- 2 1.0 3.1 105 105
r 0.495578 2 3 cbr 210 ------- 2 1.0 3.1 97 97
r 0.49709 1 2 cbr 210 ------- 2 1.0 3.1 103 103
+ 0.49709 2 3 cbr 210 ------- 2 1.0 3.1 103 103
- 0.49709 2 3 cbr 210 ------- 2 1.0 3.1 103 103
+ 0.4975 1 2 cbr 210 ------- 2 1.0 3.1 106 106
- 0.4975 1 2 cbr 210 ------- 2 1.0 3.1 106 106
r 0.499328 2 3 cbr 210 ------- 2 1.0 3.1 98 98
r 0.50084 1 2 cbr 210 ------- 2 1.0 3.1 104 104
+ 0.50084 2 3 cbr 210 ------- 2 1.0 3.1 104 104
- 0.50084 2 3 cbr 210 ------- 2 1.0 3.1 104 104
+ 0.50125 1 2 cbr 210 ------- 2 1.0 3.1 107 107
- 0.50125 1 2 cbr 210 ------- 2 1.0 3.1 107 107
r 0.503078 2 3 cbr 210 ------- 2 1.0 3.1 99 99
r 0.50459 1 2 cbr 210 ------- 2 1.0 3.1 105 105
+ 0.50459 2 3 cbr 210 ------- 2 1.0 3.1 105 105
- 0.50459 2 3 cbr 210 ------- 2 1.0 3.1 105 105
+ 0.505 1 2 cbr 210 ------- 2 1.0 3.1 108 108
- 0.505 1 2 cbr 210 ------- 2 1.0 3.1 108 108
r 0.506828 2 3 cbr 210 ------- 2 1.0 3.1 100 100
r 0.50834 1 2 cbr 210 ------- 2 1.0 3.1 106 106
+ 0.50834 2 3 cbr 210 ------- 2 1.0 3.1 106 106
- 0.50834 2 3 cbr 210 ------- 2 1.0 3.1 106 106
+ 0.50875 1 2 cbr 210 ------- 2 1.0 3.1 109 109
- 0.50875 1 2 cbr 210 ------- 2 1.0 3.1 109 109
r 0.510578 2 3 cbr 210 ------- 2 1.0 3.1 101 101
r 0.51209 1 2 cbr 210 ------- 2 1.0 3.1 107 107
+ 0.51209 2 3 cbr 210 ------- 2 1.0 3.1 107 107
- 0.51209 2 3 cbr 210 ------- 2 1.0 3.1 107 107
+ 0.5125 1 2 cbr 210 ------- 2 1.0 3.1 110 110
- 0.5125 1 2 cbr 210 ------- 2 1.0 3.1 110 110
r 0.514328 2 3 cbr 210 ------- 2 1.0 3.1 102 102
r 0.51584 1 2 cbr 210 ------- 2 1.0 3.1 108 108
+ 0.51584 2 3 cbr 210 ------- 2 1.0 3.1 108 108
- 0.51584 2 3 cbr 210 ------- 2 1.0 3.1 108 108
+ 0.51625 1 2 cbr 210 ------- 2 1.0 3.1 111 111
- 0.51625 1 2 cbr 210 ------- 2 1.0 3.1 111 111